# Lennard-Jones data file

4 atoms
1 atom types

0.0 10.0 xlo xhi
0.0 10.0 ylo yhi
0.0 10.0 zlo zhi

Masses

1 1.0

Atoms # atomic

1 1 1.0 1.0 1.0
2 1 3.0 1.0 1.0
3 1 1.0 3.0 1.0
4 1 3.0 3.0 1.0

# Potential parameters
# pair_coeff 1 1 1.0 1.0 2.5 